! TOUCHSTONE file generated by CST MICROWAVE STUDIO
! Date and time: Tue Mar 08 09:41:34 2016
! Project name: singlepatch_3.5GHz_bandwidth - interdigit - lower freqency (4) - fabricated resimulation.cst
! Header version: 2015
! Port assignment regex: !\s*Touchstone port\s*([0-9]+)\s*=\s*CST MWS port\s*([0-9]+)\s*\(\"(.*)\"\)(\s*mode\s*([0-9]+))?.*
! Touchstone port assignment:
! Touchstone port 1 = CST MWS port 1 ("")
# GHZ S DB R 50
32                      -2.68078        -45.1306  
32.008                  -2.67945        -45.6075  
32.016                  -2.67798        -46.0844  
32.024                  -2.67636        -46.5612  
32.032                  -2.67461        -47.0381  
32.04                   -2.67273        -47.5151  
32.048                  -2.67071        -47.9923  
32.056                  -2.66858        -48.4697  
32.064                  -2.66633        -48.9475  
32.072                  -2.66397        -49.4256  
32.08                   -2.66151        -49.9041  
32.088                  -2.65894         -50.383  
32.096                  -2.65629        -50.8625  
32.104                  -2.65355        -51.3426  
32.112                  -2.65074        -51.8232  
32.12                   -2.64786        -52.3045  
32.128                  -2.64492        -52.7865  
32.136                  -2.64192        -53.2692  
32.144                  -2.63888        -53.7526  
32.152                   -2.6358        -54.2368  
32.16                    -2.6327        -54.7218  
32.168                  -2.62957        -55.2076  
32.176                  -2.62644        -55.6942  
32.184                   -2.6233        -56.1817  
32.192                  -2.62016        -56.6701  
32.2                    -2.61705        -57.1593  
32.208                  -2.61395        -57.6495  
32.216                  -2.61089        -58.1405  
32.224                  -2.60786        -58.6325  
32.232                  -2.60489        -59.1253  
32.24                   -2.60197        -59.6191  
32.248                  -2.59911        -60.1137  
32.256                  -2.59633        -60.6092  
32.264                  -2.59362        -61.1056  
32.272                    -2.591        -61.6028  
32.28                   -2.58848         -62.101  
32.288                  -2.58606        -62.5999  
32.296                  -2.58374        -63.0996  
32.304                  -2.58155        -63.6002  
32.312                  -2.57947        -64.1015  
32.32                   -2.57752        -64.6036  
32.328                   -2.5757        -65.1064  
32.336                  -2.57402        -65.6099  
32.344                  -2.57248        -66.1141  
32.352                  -2.57109        -66.6189  
32.36                   -2.56986        -67.1243  
32.368                  -2.56878        -67.6303  
32.376                  -2.56787        -68.1369  
32.384                  -2.56711        -68.6439  
32.392                  -2.56653        -69.1515  
32.4                    -2.56612        -69.6595  
32.408                  -2.56588        -70.1679  
32.416                  -2.56582        -70.6767  
32.424                  -2.56594        -71.1859  
32.432                  -2.56624        -71.6954  
32.44                   -2.56672        -72.2051  
32.448                  -2.56738        -72.7151  
32.456                  -2.56822        -73.2252  
32.464                  -2.56925        -73.7356  
32.472                  -2.57047        -74.2461  
32.48                   -2.57186        -74.7567  
32.488                  -2.57344        -75.2673  
32.496                  -2.57521         -75.778  
32.504                  -2.57716        -76.2887  
32.512                  -2.57929        -76.7994  
32.52                   -2.58159          -77.31  
32.528                  -2.58408        -77.8205  
32.536                  -2.58674        -78.3309  
32.544                  -2.58957        -78.8412  
32.552                  -2.59258        -79.3513  
32.56                   -2.59575        -79.8612  
32.568                  -2.59909        -80.3709  
32.576                  -2.60259        -80.8804  
32.584                  -2.60625        -81.3895  
32.592                  -2.61007        -81.8984  
32.6                    -2.61404         -82.407  
32.608                  -2.61816        -82.9153  
32.616                  -2.62243        -83.4233  
32.624                  -2.62683        -83.9309  
32.632                  -2.63138        -84.4382  
32.64                   -2.63605        -84.9451  
32.648                  -2.64086        -85.4517  
32.656                  -2.64579        -85.9579  
32.664                  -2.65084        -86.4636  
32.672                  -2.65601         -86.969  
32.68                   -2.66128         -87.474  
32.688                  -2.66667        -87.9787  
32.696                  -2.67216        -88.4829  
32.704                  -2.67775        -88.9868  
32.712                  -2.68343        -89.4902  
32.72                    -2.6892        -89.9934  
32.728                  -2.69506        -90.4961  
32.736                    -2.701        -90.9985  
32.744                  -2.70701        -91.5006  
32.752                   -2.7131        -92.0023  
32.76                   -2.71926        -92.5037  
32.768                  -2.72549        -93.0048  
32.776                  -2.73177        -93.5057  
32.784                  -2.73812        -94.0062  
32.792                  -2.74452        -94.5066  
32.8                    -2.75097        -95.0067  
32.808                  -2.75747        -95.5066  
32.816                  -2.76401        -96.0063  
32.824                  -2.77059        -96.5059  
32.832                  -2.77722        -97.0054  
32.84                   -2.78388        -97.5048  
32.848                  -2.79058        -98.0041  
32.856                  -2.79731        -98.5034  
32.864                  -2.80407        -99.0026  
32.872                  -2.81085        -99.5019  
32.88                   -2.81767        -100.001  
32.888                  -2.82451        -100.501  
32.896                  -2.83137            -101  
32.904                  -2.83826          -101.5  
32.912                  -2.84517            -102  
32.92                   -2.85211          -102.5  
32.928                  -2.85906            -103  
32.936                  -2.86604        -103.501  
32.944                  -2.87304        -104.001  
32.952                  -2.88007        -104.503  
32.96                   -2.88711        -105.004  
32.968                  -2.89418        -105.506  
32.976                  -2.90128        -106.009  
32.984                   -2.9084        -106.511  
32.992                  -2.91555        -107.015  
33                      -2.92272        -107.519  
33.008                  -2.92993        -108.023  
33.016                  -2.93717        -108.528  
33.024                  -2.94445        -109.034  
33.032                  -2.95176         -109.54  
33.04                   -2.95911        -110.048  
33.048                   -2.9665        -110.555  
33.056                  -2.97394        -111.064  
33.064                  -2.98142        -111.573  
33.072                  -2.98895        -112.083  
33.08                   -2.99654        -112.594  
33.088                  -3.00418        -113.106  
33.096                  -3.01189        -113.618  
33.104                  -3.01965        -114.132  
33.112                  -3.02749        -114.646  
33.12                   -3.03539        -115.161  
33.128                  -3.04337        -115.677  
33.136                  -3.05143        -116.195  
33.144                  -3.05956        -116.713  
33.152                  -3.06779        -117.232  
33.16                    -3.0761        -117.752  
33.168                   -3.0845        -118.273  
33.176                  -3.09301        -118.795  
33.184                  -3.10161        -119.318  
33.192                  -3.11032        -119.843  
33.2                    -3.11913        -120.368  
33.208                  -3.12806        -120.894  
33.216                  -3.13711        -121.422  
33.224                  -3.14627         -121.95  
33.232                  -3.15556         -122.48  
33.24                   -3.16498        -123.011  
33.248                  -3.17453        -123.543  
33.256                  -3.18422        -124.076  
33.264                  -3.19404         -124.61  
33.272                  -3.20401        -125.145  
33.28                   -3.21412        -125.681  
33.288                  -3.22438        -126.218  
33.296                  -3.23479        -126.757  
33.304                  -3.24536        -127.296  
33.312                  -3.25609        -127.837  
33.32                   -3.26698        -128.378  
33.328                  -3.27803        -128.921  
33.336                  -3.28925        -129.465  
33.344                  -3.30064         -130.01  
33.352                   -3.3122        -130.556  
33.36                   -3.32393        -131.103  
33.368                  -3.33585        -131.651  
33.376                  -3.34794          -132.2  
33.384                  -3.36021         -132.75  
33.392                  -3.37266        -133.302  
33.4                     -3.3853        -133.854  
33.408                  -3.39813        -134.407  
33.416                  -3.41114        -134.962  
33.424                  -3.42435        -135.517  
33.432                  -3.43774        -136.074  
33.44                   -3.45132        -136.631  
33.448                   -3.4651        -137.189  
33.456                  -3.47907        -137.749  
33.464                  -3.49323        -138.309  
33.472                  -3.50759         -138.87  
33.48                   -3.52214        -139.433  
33.488                  -3.53689        -139.996  
33.496                  -3.55183         -140.56  
33.504                  -3.56697        -141.125  
33.512                   -3.5823        -141.692  
33.52                   -3.59784        -142.259  
33.528                  -3.61356        -142.827  
33.536                  -3.62948        -143.396  
33.544                   -3.6456        -143.966  
33.552                  -3.66191        -144.537  
33.56                   -3.67841        -145.109  
33.568                  -3.69511        -145.681  
33.576                  -3.71199        -146.255  
33.584                  -3.72908         -146.83  
33.592                  -3.74635        -147.406  
33.6                    -3.76381        -147.982  
33.608                  -3.78146         -148.56  
33.616                   -3.7993        -149.138  
33.624                  -3.81732        -149.718  
33.632                  -3.83553        -150.298  
33.64                   -3.85392         -150.88  
33.648                   -3.8725        -151.462  
33.656                  -3.89126        -152.046  
33.664                  -3.91021         -152.63  
33.672                  -3.92933        -153.216  
33.68                   -3.94863        -153.803  
33.688                  -3.96811         -154.39  
33.696                  -3.98776        -154.979  
33.704                  -4.00759        -155.569  
33.712                  -4.02759         -156.16  
33.72                   -4.04777        -156.752  
33.728                  -4.06812        -157.345  
33.736                  -4.08863        -157.939  
33.744                  -4.10932        -158.535  
33.752                  -4.13018        -159.132  
33.76                   -4.15121         -159.73  
33.768                   -4.1724        -160.329  
33.776                  -4.19375        -160.929  
33.784                  -4.21528        -161.531  
33.792                  -4.23696        -162.134  
33.8                    -4.25882        -162.739  
33.808                  -4.28083        -163.345  
33.816                  -4.30301        -163.952  
33.824                  -4.32535         -164.56  
33.832                  -4.34786        -165.171  
33.84                   -4.37052        -165.782  
33.848                  -4.39335        -166.395  
33.856                  -4.41634         -167.01  
33.864                   -4.4395        -167.626  
33.872                  -4.46281        -168.244  
33.88                   -4.48629        -168.864  
33.888                  -4.50993        -169.485  
33.896                  -4.53374        -170.108  
33.904                  -4.55771        -170.732  
33.912                  -4.58185        -171.359  
33.92                   -4.60615        -171.987  
33.928                  -4.63062        -172.617  
33.936                  -4.65526        -173.249  
33.944                  -4.68007        -173.883  
33.952                  -4.70505        -174.518  
33.96                   -4.73021        -175.156  
33.968                  -4.75553        -175.796  
33.976                  -4.78103        -176.438  
33.984                  -4.80671        -177.082  
33.992                  -4.83257        -177.728  
34                      -4.85861        -178.376  
34.008                  -4.88483        -179.027  
34.016                  -4.91124        -179.679  
34.024                  -4.93784         179.666  
34.032                  -4.96462         179.009  
34.04                    -4.9916         178.349  
34.048                  -5.01877         177.687  
34.056                  -5.04614         177.023  
34.064                  -5.07371         176.356  
34.072                  -5.10148         175.686  
34.08                   -5.12945         175.015  
34.088                  -5.15764          174.34  
34.096                  -5.18603         173.663  
34.104                  -5.21464         172.984  
34.112                  -5.24347         172.301  
34.12                   -5.27251         171.616  
34.128                  -5.30178         170.929  
34.136                  -5.33127         170.238  
34.144                  -5.36099         169.545  
34.152                  -5.39094         168.849  
34.16                   -5.42113          168.15  
34.168                  -5.45155         167.449  
34.176                  -5.48222         166.744  
34.184                  -5.51313         166.036  
34.192                  -5.54428         165.326  
34.2                    -5.57569         164.612  
34.208                  -5.60735         163.896  
34.216                  -5.63926         163.176  
34.224                  -5.67143         162.453  
34.232                  -5.70387         161.728  
34.24                   -5.73656         160.999  
34.248                  -5.76952         160.267  
34.256                  -5.80276         159.531  
34.264                  -5.83626         158.793  
34.272                  -5.87004         158.051  
34.28                   -5.90409         157.306  
34.288                  -5.93843         156.558  
34.296                  -5.97304         155.806  
34.304                  -6.00794         155.051  
34.312                  -6.04312         154.293  
34.32                   -6.07859         153.531  
34.328                  -6.11435         152.766  
34.336                  -6.15039         151.997  
34.344                  -6.18673         151.225  
34.352                  -6.22336          150.45  
34.36                   -6.26028         149.671  
34.368                   -6.2975         148.888  
34.376                  -6.33502         148.102  
34.384                  -6.37282         147.313  
34.392                  -6.41093         146.519  
34.4                    -6.44933         145.722  
34.408                  -6.48803         144.922  
34.416                  -6.52702         144.118  
34.424                  -6.56631          143.31  
34.432                  -6.60589         142.498  
34.44                   -6.64577         141.683  
34.448                  -6.68594         140.864  
34.456                   -6.7264         140.041  
34.464                  -6.76715         139.214  
34.472                  -6.80819         138.384  
34.48                   -6.84952          137.55  
34.488                  -6.89113         136.711  
34.496                  -6.93303         135.869  
34.504                   -6.9752         135.023  
34.512                  -7.01765         134.174  
34.52                   -7.06037          133.32  
34.528                  -7.10336         132.462  
34.536                  -7.14661           131.6  
34.544                  -7.19013         130.734  
34.552                  -7.23391         129.865  
34.56                   -7.27793         128.991  
34.568                   -7.3222         128.113  
34.576                  -7.36672         127.231  
34.584                  -7.41147         126.344  
34.592                  -7.45645         125.454  
34.6                    -7.50165         124.559  
34.608                  -7.54708         123.661  
34.616                  -7.59271         122.758  
34.624                  -7.63855          121.85  
34.632                  -7.68458         120.939  
34.64                    -7.7308         120.023  
34.648                  -7.77721         119.103  
34.656                  -7.82378         118.178  
34.664                  -7.87052         117.249  
34.672                  -7.91741         116.316  
34.68                   -7.96444         115.378  
34.688                  -8.01161         114.436  
34.696                  -8.05891          113.49  
34.704                  -8.10631         112.539  
34.712                  -8.15382         111.583  
34.72                   -8.20143         110.623  
34.728                  -8.24911         109.658  
34.736                  -8.29686         108.689  
34.744                  -8.34467         107.715  
34.752                  -8.39252         106.737  
34.76                    -8.4404         105.754  
34.768                   -8.4883         104.766  
34.776                   -8.5362         103.774  
34.784                   -8.5841         102.777  
34.792                  -8.63197         101.775  
34.8                     -8.6798         100.768  
34.808                  -8.72758         99.7572  
34.816                  -8.77528         98.7412  
34.824                  -8.82291         97.7205  
34.832                  -8.87043          96.695  
34.84                   -8.91784         95.6648  
34.848                  -8.96512         94.6298  
34.856                  -9.01224         93.5901  
34.864                   -9.0592         92.5455  
34.872                  -9.10598         91.4962  
34.88                   -9.15255         90.4421  
34.888                  -9.19891         89.3832  
34.896                  -9.24503         88.3196  
34.904                   -9.2909         87.2512  
34.912                  -9.33649         86.1781  
34.92                    -9.3818         85.1003  
34.928                  -9.42679         84.0177  
34.936                  -9.47145         82.9305  
34.944                  -9.51577         81.8385  
34.952                  -9.55972          80.742  
34.96                   -9.60328         79.6408  
34.968                  -9.64644          78.535  
34.976                  -9.68918         77.4248  
34.984                  -9.73147         76.3099  
34.992                   -9.7733         75.1906  
35                      -9.81465          74.067  
35.008                  -9.85549          72.939  
35.016                  -9.89582         71.8066  
35.024                   -9.9356           70.67  
35.032                  -9.97483         69.5293  
35.04                   -10.0135         68.3844  
35.048                  -10.0515         67.2355  
35.056                   -10.089         66.0826  
35.064                  -10.1258         64.9259  
35.072                   -10.162         63.7653  
35.08                   -10.1975          62.601  
35.088                  -10.2323         61.4331  
35.096                  -10.2664         60.2617  
35.104                  -10.2998         59.0868  
35.112                  -10.3325         57.9086  
35.12                   -10.3644         56.7273  
35.128                  -10.3956         55.5428  
35.136                   -10.426         54.3554  
35.144                  -10.4556         53.1651  
35.152                  -10.4844         51.9721  
35.16                   -10.5124         50.7765  
35.168                  -10.5395         49.5784  
35.176                  -10.5658          48.378  
35.184                  -10.5913         47.1754  
35.192                  -10.6159         45.9708  
35.2                    -10.6397         44.7643  
35.208                  -10.6626          43.556  
35.216                  -10.6846         42.3462  
35.224                  -10.7057         41.1349  
35.232                  -10.7259         39.9223  
35.24                   -10.7452         38.7086  
35.248                  -10.7636          37.494  
35.256                  -10.7812         36.2785  
35.264                  -10.7978         35.0624  
35.272                  -10.8135         33.8459  
35.28                   -10.8283          32.629  
35.288                  -10.8422         31.4121  
35.296                  -10.8552         30.1951  
35.304                  -10.8672         28.9784  
35.312                  -10.8784          27.762  
35.32                   -10.8887         26.5462  
35.328                  -10.8981         25.3311  
35.336                  -10.9066         24.1168  
35.344                  -10.9142         22.9035  
35.352                   -10.921         21.6916  
35.36                   -10.9269         20.4809  
35.368                  -10.9319         19.2717  
35.376                  -10.9362         18.0643  
35.384                  -10.9395         16.8587  
35.392                  -10.9421         15.6551  
35.4                    -10.9438         14.4536  
35.408                  -10.9447         13.2544  
35.416                  -10.9449         12.0577  
35.424                  -10.9443         10.8636  
35.432                  -10.9429         9.67209  
35.44                   -10.9408         8.48354  
35.448                  -10.9379         7.29797  
35.456                  -10.9344         6.11553  
35.464                  -10.9301         4.93634  
35.472                  -10.9252         3.76053  
35.48                   -10.9196         2.58819  
35.488                  -10.9134         1.41947  
35.496                  -10.9065        0.254473  
35.504                   -10.899        -0.90675  
35.512                   -10.891        -2.06398  
35.52                   -10.8823        -3.21724  
35.528                  -10.8731        -4.36634  
35.536                  -10.8634        -5.51128  
35.544                  -10.8531        -6.65189  
35.552                  -10.8424        -7.78815  
35.56                   -10.8312        -8.91996  
35.568                  -10.8195        -10.0473  
35.576                  -10.8073          -11.17  
35.584                  -10.7948         -12.288  
35.592                  -10.7818        -13.4013  
35.6                    -10.7684        -14.5099  
35.608                  -10.7547        -15.6136  
35.616                  -10.7406        -16.7125  
35.624                  -10.7261        -17.8065  
35.632                  -10.7114        -18.8955  
35.64                   -10.6963        -19.9795  
35.648                   -10.681        -21.0585  
35.656                  -10.6654        -22.1325  
35.664                  -10.6495        -23.2014  
35.672                  -10.6334        -24.2651  
35.68                   -10.6171        -25.3238  
35.688                  -10.6005        -26.3774  
35.696                  -10.5838        -27.4258  
35.704                  -10.5669         -28.469  
35.712                  -10.5498        -29.5072  
35.72                   -10.5326        -30.5401  
35.728                  -10.5153         -31.568  
35.736                  -10.4978        -32.5906  
35.744                  -10.4802        -33.6082  
35.752                  -10.4626        -34.6206  
35.76                   -10.4448        -35.6279  
35.768                   -10.427        -36.6301  
35.776                  -10.4091        -37.6272  
35.784                  -10.3912        -38.6192  
35.792                  -10.3732        -39.6063  
35.8                    -10.3552        -40.5883  
35.808                  -10.3371        -41.5653  
35.816                  -10.3191        -42.5374  
35.824                  -10.3011        -43.5046  
35.832                  -10.2831        -44.4669  
35.84                   -10.2651        -45.4244  
35.848                  -10.2471        -46.3771  
35.856                  -10.2291         -47.325  
35.864                  -10.2112        -48.2682  
35.872                  -10.1934        -49.2067  
35.88                   -10.1756        -50.1406  
35.888                  -10.1579          -51.07  
35.896                  -10.1402        -51.9949  
35.904                  -10.1226        -52.9152  
35.912                  -10.1051        -53.8312  
35.92                   -10.0877        -54.7428  
35.928                  -10.0704        -55.6502  
35.936                  -10.0532        -56.5533  
35.944                  -10.0361        -57.4522  
35.952                  -10.0191        -58.3471  
35.96                   -10.0022        -59.2378  
35.968                  -9.98549        -60.1247  
35.976                  -9.96886        -61.0077  
35.984                  -9.95236        -61.8867  
35.992                    -9.936        -62.7621  
36                      -9.91977        -63.6338  
36.008                  -9.90369        -64.5019  
36.016                  -9.88776        -65.3664  
36.024                  -9.87198        -66.2274  
36.032                  -9.85635        -67.0851  
36.04                   -9.84089        -67.9395  
36.048                  -9.82559        -68.7906  
36.056                  -9.81046        -69.6386  
36.064                   -9.7955        -70.4835  
36.072                  -9.78071        -71.3255  
36.08                   -9.76611        -72.1645  
36.088                  -9.75169        -73.0008  
36.096                  -9.73747        -73.8343  
36.104                  -9.72343        -74.6651  
36.112                  -9.70959        -75.4934  
36.12                   -9.69596        -76.3192  
36.128                  -9.68253        -77.1427  
36.136                  -9.66932        -77.9638  
36.144                  -9.65632        -78.7827  
36.152                  -9.64354        -79.5995  
36.16                   -9.63099        -80.4142  
36.168                  -9.61867         -81.227  
36.176                  -9.60659         -82.038  
36.184                  -9.59476        -82.8471  
36.192                  -9.58317        -83.6546  
36.2                    -9.57183        -84.4605  
36.208                  -9.56076        -85.2649  
36.216                  -9.54995        -86.0679  
36.224                  -9.53942        -86.8695  
36.232                  -9.52916        -87.6699  
36.24                   -9.51919        -88.4691  
36.248                  -9.50952        -89.2673  
36.256                  -9.50015        -90.0645  
36.264                  -9.49109        -90.8607  
36.272                  -9.48234        -91.6562  
36.28                   -9.47392         -92.451  
36.288                  -9.46583        -93.2451  
36.296                  -9.45808        -94.0386  
36.304                  -9.45068        -94.8317  
36.312                  -9.44364        -95.6243  
36.32                   -9.43696        -96.4167  
36.328                  -9.43067        -97.2088  
36.336                  -9.42475        -98.0008  
36.344                  -9.41924        -98.7927  
36.352                  -9.41413        -99.5846  
36.36                   -9.40943        -100.377  
36.368                  -9.40516        -101.169  
36.376                  -9.40132        -101.961  
36.384                  -9.39794        -102.754  
36.392                  -9.39501        -103.547  
36.4                    -9.39254         -104.34  
36.408                  -9.39056        -105.134  
36.416                  -9.38907        -105.929  
36.424                  -9.38809        -106.724  
36.432                  -9.38761         -107.52  
36.44                   -9.38767        -108.317  
36.448                  -9.38826        -109.114  
36.456                  -9.38941        -109.912  
36.464                  -9.39112        -110.712  
36.472                   -9.3934        -111.512  
36.48                   -9.39628        -112.314  
36.488                  -9.39975        -113.116  
36.496                  -9.40385         -113.92  
36.504                  -9.40857        -114.725  
36.512                  -9.41393        -115.532  
36.52                   -9.41995        -116.339  
36.528                  -9.42664        -117.148  
36.536                  -9.43401        -117.959  
36.544                  -9.44208        -118.771  
36.552                  -9.45086        -119.585  
36.56                   -9.46037          -120.4  
36.568                  -9.47062        -121.217  
36.576                  -9.48162        -122.035  
36.584                  -9.49339        -122.856  
36.592                  -9.50594        -123.678  
36.6                    -9.51929        -124.501  
36.608                  -9.53346        -125.327  
36.616                  -9.54846        -126.155  
36.624                   -9.5643        -126.984  